
                                 *****************
                                 * O   R   C   A *
                                 *****************

                                            #,                                       
                                            ###                                      
                                            ####                                     
                                            #####                                    
                                            ######                                   
                                           ########,                                 
                                     ,,################,,,,,                         
                               ,,#################################,,                 
                          ,,##########################################,,             
                       ,#########################################, ''#####,          
                    ,#############################################,,   '####,        
                  ,##################################################,,,,####,       
                ,###########''''           ''''###############################       
              ,#####''   ,,,,##########,,,,          '''####'''          '####       
            ,##' ,,,,###########################,,,                        '##       
           ' ,,###''''                  '''############,,,                           
         ,,##''                                '''############,,,,        ,,,,,,###''
      ,#''                                            '''#######################'''  
     '                                                          ''''####''''         
             ,#######,   #######,   ,#######,      ##                                
            ,#'     '#,  ##    ##  ,#'     '#,    #''#        ######   ,####,        
            ##       ##  ##   ,#'  ##            #'  '#       #        #'  '#        
            ##       ##  #######   ##           ,######,      #####,   #    #        
            '#,     ,#'  ##    ##  '#,     ,#' ,#      #,         ##   #,  ,#        
             '#######'   ##     ##  '#######'  #'      '#     #####' # '####'        



                  #######################################################
                  #                        -***-                        #
                  #          Department of theory and spectroscopy      #
                  #    Directorship and core code : Frank Neese         #
                  #        Max Planck Institute fuer Kohlenforschung    #
                  #                Kaiser Wilhelm Platz 1               #
                  #                 D-45470 Muelheim/Ruhr               #
                  #                      Germany                        #
                  #                                                     #
                  #                  All rights reserved                #
                  #                        -***-                        #
                  #######################################################


                         Program Version 5.0.1 -  RELEASE  -


 With contributions from (in alphabetic order):
   Daniel Aravena         : Magnetic Suceptibility
   Michael Atanasov       : Ab Initio Ligand Field Theory (pilot matlab implementation)
   Alexander A. Auer      : GIAO ZORA, VPT2 properties, NMR spectrum
   Ute Becker             : Parallelization
   Giovanni Bistoni       : ED, misc. LED, open-shell LED, HFLD
   Martin Brehm           : Molecular dynamics
   Dmytro Bykov           : SCF Hessian
   Vijay G. Chilkuri      : MRCI spin determinant printing, contributions to CSF-ICE
   Dipayan Datta          : RHF DLPNO-CCSD density
   Achintya Kumar Dutta   : EOM-CC, STEOM-CC
   Dmitry Ganyushin       : Spin-Orbit,Spin-Spin,Magnetic field MRCI
   Miquel Garcia          : C-PCM and meta-GGA Hessian, CC/C-PCM, Gaussian charge scheme
   Yang Guo               : DLPNO-NEVPT2, F12-NEVPT2, CIM, IAO-localization
   Andreas Hansen         : Spin unrestricted coupled pair/coupled cluster methods
   Benjamin Helmich-Paris : MC-RPA, TRAH-SCF, COSX integrals
   Lee Huntington         : MR-EOM, pCC
   Robert Izsak           : Overlap fitted RIJCOSX, COSX-SCS-MP3, EOM
   Marcus Kettner         : VPT2
   Christian Kollmar      : KDIIS, OOCD, Brueckner-CCSD(T), CCSD density, CASPT2, CASPT2-K
   Simone Kossmann        : Meta GGA functionals, TD-DFT gradient, OOMP2, MP2 Hessian
   Martin Krupicka        : Initial AUTO-CI
   Lucas Lang             : DCDCAS
   Marvin Lechner         : AUTO-CI (C++ implementation), FIC-MRCC
   Dagmar Lenk            : GEPOL surface, SMD
   Dimitrios Liakos       : Extrapolation schemes; Compound Job, initial MDCI parallelization
   Dimitrios Manganas     : Further ROCIS development; embedding schemes
   Dimitrios Pantazis     : SARC Basis sets
   Anastasios Papadopoulos: AUTO-CI, single reference methods and gradients
   Taras Petrenko         : DFT Hessian,TD-DFT gradient, ASA, ECA, R-Raman, ABS, FL, XAS/XES, NRVS
   Peter Pinski           : DLPNO-MP2, DLPNO-MP2 Gradient
   Christoph Reimann      : Effective Core Potentials
   Marius Retegan         : Local ZFS, SOC
   Christoph Riplinger    : Optimizer, TS searches, QM/MM, DLPNO-CCSD(T), (RO)-DLPNO pert. Triples
   Tobias Risthaus        : Range-separated hybrids, TD-DFT gradient, RPA, STAB
   Michael Roemelt        : Original ROCIS implementation
   Masaaki Saitow         : Open-shell DLPNO-CCSD energy and density
   Barbara Sandhoefer     : DKH picture change effects
   Avijit Sen             : IP-ROCIS
   Kantharuban Sivalingam : CASSCF convergence, NEVPT2, FIC-MRCI
   Bernardo de Souza      : ESD, SOC TD-DFT
   Georgi Stoychev        : AutoAux, RI-MP2 NMR, DLPNO-MP2 response
   Willem Van den Heuvel  : Paramagnetic NMR
   Boris Wezisla          : Elementary symmetry handling
   Frank Wennmohs         : Technical directorship


 We gratefully acknowledge several colleagues who have allowed us to
 interface, adapt or use parts of their codes:
   Stefan Grimme, W. Hujo, H. Kruse, P. Pracht,  : VdW corrections, initial TS optimization,
                  C. Bannwarth, S. Ehlert          DFT functionals, gCP, sTDA/sTD-DF
   Ed Valeev, F. Pavosevic, A. Kumar             : LibInt (2-el integral package), F12 methods
   Garnet Chan, S. Sharma, J. Yang, R. Olivares  : DMRG
   Ulf Ekstrom                                   : XCFun DFT Library
   Mihaly Kallay                                 : mrcc  (arbitrary order and MRCC methods)
   Jiri Pittner, Ondrej Demel                    : Mk-CCSD
   Frank Weinhold                                : gennbo (NPA and NBO analysis)
   Christopher J. Cramer and Donald G. Truhlar   : smd solvation model
   Lars Goerigk                                  : TD-DFT with DH, B97 family of functionals
   V. Asgeirsson, H. Jonsson                     : NEB implementation
   FAccTs GmbH                                   : IRC, NEB, NEB-TS, DLPNO-Multilevel, CI-OPT
                                                   MM, QMMM, 2- and 3-layer-ONIOM, Crystal-QMMM,
                                                   LR-CPCM, SF, NACMEs, symmetry and pop. for TD-DFT,
                                                   nearIR, NL-DFT gradient (VV10), updates on ESD,
                                                   ML-optimized integration grids
   S Lehtola, MJT Oliveira, MAL Marques          : LibXC Library
   Liviu Ungur et al                             : ANISO software


 Your calculation uses the libint2 library for the computation of 2-el integrals
 For citations please refer to: http://libint.valeyev.net

 Your ORCA version has been built with support for libXC version: 5.1.0
 For citations please refer to: https://tddft.org/programs/libxc/

 This ORCA versions uses:
   CBLAS   interface :  Fast vector & matrix operations
   LAPACKE interface :  Fast linear algebra routines
   SCALAPACK package :  Parallel linear algebra routines
   Shared memory     :  Shared parallel matrices
   BLAS/LAPACK       :  OpenBLAS 0.3.15  USE64BITINT DYNAMIC_ARCH NO_AFFINITY Haswell SINGLE_THREADED
        Core in use  :  Haswell
   Copyright (c) 2011-2014, The OpenBLAS Project


XCFun DFT library Copyright 2009-2010 Ulf Ekstrom and contributors.
See http://admol.org/xcfun for more information.
This is free software; see the source code for copying conditions.
There is ABSOLUTELY NO WARRANTY; not even for MERCHANTABILITY or FITNESS FOR A PARTICULAR PURPOSE.
For details see the documentation.
Scientific users of this library should cite U. Ekstrom, L. Visscher, R. Bast, A. J. Thorvaldsen and K. Ruud;
J.Chem.Theor.Comp. 2010, DOI: 10.1021/ct100117s
XCFun Version 0.99 

================================================================================

----- Orbital basis set information -----
Your calculation utilizes the basis: def2-TZVP
   F. Weigend and R. Ahlrichs, Phys. Chem. Chem. Phys. 7, 3297 (2005).

----- AuxJ basis set information -----
Your calculation utilizes the auxiliary basis: def2/J
   F. Weigend, Phys. Chem. Chem. Phys. 8, 1057 (2006).

================================================================================
                                        WARNINGS
                       Please study these warnings very carefully!
================================================================================


WARNING: Geometry Optimization
  ===> : Switching off AutoStart
         For restart on a previous wavefunction, please use MOREAD

INFO   : the flag for use of the SHARK integral package has been found!

================================================================================
                                       INPUT FILE
================================================================================
NAME = Pyridazine-oxaizridine-m062xdeftzvpJ-optf.inp
|  1> #memory request in MB
|  2> %maxcore 4000
|  3> %pal nprocs=4
|  4> end
|  5> #method, basis set, type of calculation
|  6> #(optimization followed by frequency calculation)
|  7> ! m062X  def2-TZVP def2/J TIGHTSCF Opt Freq PAL2 defgrid3 Slowconv
|  8> %scf MaxIter 550
|  9>   end
| 10> %geom
| 11> Recalc_Hess 5
| 12> MaxIter 150
| 13> end
| 14> #xyz for cartesian coordinates, charge, spin multiplicity
| 15> *xyz 0 1
| 16> #atomic symbol, coordinates
| 17> C        0.091045000     -0.030261000      0.138972000
| 18> C       -1.092965000     -0.493047000      0.814891000
| 19> N        1.099489000      0.534711000      0.713970000
| 20> H       -1.974524000     -0.701803000      0.222564000
| 21> C       -1.143144000     -0.411036000      2.157562000
| 22> N        1.266019000      0.466869000      2.085065000
| 23> H       -2.068116000     -0.514503000      2.710615000
| 24> O        1.180347000     -0.935757000      2.582222000
| 25> C        0.082582000     -0.144435000      2.884265000
| 26> H        0.024950000      0.216819000      3.906754000
| 27> H        0.086672000      0.034313000     -0.945340000
| 28> *
| 29> 
| 30> 
| 31> 
| 32> 
| 33>                          ****END OF INPUT****
================================================================================

                       *****************************
                       * Geometry Optimization Run *
                       *****************************

Geometry optimization settings:
Update method            Update   .... BFGS
Choice of coordinates    CoordSys .... Z-matrix Internals
Initial Hessian          InHess   .... Almoef's Model

Convergence Tolerances:
Energy Change            TolE     ....  5.0000e-06 Eh
Max. Gradient            TolMAXG  ....  3.0000e-04 Eh/bohr
RMS Gradient             TolRMSG  ....  1.0000e-04 Eh/bohr
Max. Displacement        TolMAXD  ....  4.0000e-03 bohr
RMS Displacement         TolRMSD  ....  2.0000e-03 bohr
Strict Convergence                ....  False
------------------------------------------------------------------------------
                        ORCA OPTIMIZATION COORDINATE SETUP
------------------------------------------------------------------------------

The optimization will be done in new redundant internal coordinates
Making redundant internal coordinates   ...  (new redundants) done
Evaluating the initial hessian          ...  (Is done on the fly) done
Evaluating the coordinates              ...  done
Calculating the B-matrix                .... done
Calculating the G-matrix                .... done
Diagonalizing the G-matrix              .... done
The first mode is                       ....   31
The number of degrees of freedom        ....   27

    -----------------------------------------------------------------
                    Redundant Internal Coordinates


    -----------------------------------------------------------------
         Definition                    Initial Value    d2E/dq (diagonal element)
    -----------------------------------------------------------------
      1. B(C   1,C   0)                  1.4398         0.000000   
      2. B(N   2,C   0)                  1.2910         0.000000   
      3. B(H   3,C   1)                  1.0824         0.000000   
      4. B(C   4,C   1)                  1.3461         0.000000   
      5. B(N   5,N   2)                  1.3828         0.000000   
      6. B(H   6,C   4)                  1.0827         0.000000   
      7. B(O   7,N   5)                  1.4906         0.000000   
      8. B(C   8,O   7)                  1.3865         0.000000   
      9. B(C   8,N   5)                  1.5534         0.000000   
     10. B(C   8,C   4)                  1.4497         0.000000   
     11. B(H   9,C   8)                  1.0860         0.000000   
     12. B(H  10,C   0)                  1.0862         0.000000   
     13. A(N   2,C   0,H  10)          114.9429         0.000000   
     14. A(C   1,C   0,N   2)          125.0249         0.000000   
     15. A(C   1,C   0,H  10)          118.9751         0.000000   
     16. A(C   0,C   1,C   4)          118.6422         0.000000   
     17. A(C   0,C   1,H   3)          118.3503         0.000000   
     18. A(H   3,C   1,C   4)          121.8185         0.000000   
     19. A(C   0,N   2,N   5)          120.9435         0.000000   
     20. A(C   1,C   4,H   6)          122.3812         0.000000   
     21. A(H   6,C   4,C   8)          118.9386         0.000000   
     22. A(C   1,C   4,C   8)          118.6652         0.000000   
     23. A(N   2,N   5,O   7)          111.7120         0.000000   
     24. A(O   7,N   5,C   8)           54.1476         0.000000   
     25. A(N   2,N   5,C   8)          115.9564         0.000000   
     26. A(N   5,O   7,C   8)           65.2365         0.000000   
     27. A(N   5,C   8,O   7)           60.6160         0.000000   
     28. A(C   4,C   8,O   7)          117.0817         0.000000   
     29. A(C   4,C   8,N   5)          117.2982         0.000000   
     30. A(O   7,C   8,H   9)          115.9111         0.000000   
     31. A(N   5,C   8,H   9)          113.2002         0.000000   
     32. A(C   4,C   8,H   9)          119.2283         0.000000   
     33. D(C   4,C   1,C   0,H  10)   -171.6798         0.000000   
     34. D(C   4,C   1,C   0,N   2)     -4.0591         0.000000   
     35. D(H   3,C   1,C   0,N   2)    163.7146         0.000000   
     36. D(H   3,C   1,C   0,H  10)     -3.9061         0.000000   
     37. D(N   5,N   2,C   0,H  10)   -176.5962         0.000000   
     38. D(N   5,N   2,C   0,C   1)     15.3411         0.000000   
     39. D(H   6,C   4,C   1,C   0)    165.1526         0.000000   
     40. D(C   8,C   4,C   1,H   3)    179.2475         0.000000   
     41. D(C   8,C   4,C   1,C   0)    -13.4225         0.000000   
     42. D(H   6,C   4,C   1,H   3)     -2.1774         0.000000   
     43. D(C   8,N   5,N   2,C   0)     -8.2281         0.000000   
     44. D(O   7,N   5,N   2,C   0)     51.2867         0.000000   
     45. D(C   8,O   7,N   5,N   2)   -107.0676         0.000000   
     46. D(N   5,C   8,C   4,H   6)   -159.7074         0.000000   
     47. D(N   5,C   8,C   4,C   1)     18.9177         0.000000   
     48. D(H   9,C   8,O   7,N   5)   -103.2425         0.000000   
     49. D(C   4,C   8,O   7,N   5)    107.6512         0.000000   
     50. D(H   9,C   8,N   5,O   7)    107.7140         0.000000   
     51. D(O   7,C   8,N   5,N   2)     98.9668         0.000000   
     52. D(C   4,C   8,N   5,O   7)   -107.2979         0.000000   
     53. D(C   4,C   8,N   5,N   2)     -8.3310         0.000000   
     54. D(H   9,C   8,N   5,N   2)   -153.3191         0.000000   
     55. D(H   9,C   8,C   4,H   6)    -16.8850         0.000000   
     56. D(H   9,C   8,C   4,C   1)    161.7401         0.000000   
     57. D(O   7,C   8,C   4,H   6)    131.1630         0.000000   
     58. D(O   7,C   8,C   4,C   1)    -50.2120         0.000000   
    -----------------------------------------------------------------

Number of atoms                         .... 11
Number of degrees of freedom            .... 58

         *************************************************************
         *                GEOMETRY OPTIMIZATION CYCLE   1            *
         *************************************************************
---------------------------------
CARTESIAN COORDINATES (ANGSTROEM)
---------------------------------
  C      0.091045   -0.030261    0.138972
  C     -1.092965   -0.493047    0.814891
  N      1.099489    0.534711    0.713970
  H     -1.974524   -0.701803    0.222564
  C     -1.143144   -0.411036    2.157562
  N      1.266019    0.466869    2.085065
  H     -2.068116   -0.514503    2.710615
  O      1.180347   -0.935757    2.582222
  C      0.082582   -0.144435    2.884265
  H      0.024950    0.216819    3.906754
  H      0.086672    0.034313   -0.945340

----------------------------
CARTESIAN COORDINATES (A.U.)
----------------------------
  NO LB      ZA    FRAG     MASS         X           Y           Z
   0 C     6.0000    0    12.011    0.172050   -0.057185    0.262619
   1 C     6.0000    0    12.011   -2.065405   -0.931724    1.539921
   2 N     7.0000    0    14.007    2.077733    1.010457    1.349208
   3 H     1.0000    0     1.008   -3.731310   -1.326215    0.420585
   4 C     6.0000    0    12.011   -2.160229   -0.776745    4.077201
   5 N     7.0000    0    14.007    2.392429    0.882255    3.940202
   6 H     1.0000    0     1.008   -3.908173   -0.972270    5.122320
   7 O     8.0000    0    15.999    2.230533   -1.768324    4.879692
   8 C     6.0000    0    12.011    0.156057   -0.272943    5.450471
   9 H     1.0000    0     1.008    0.047149    0.409729    7.382695
  10 H     1.0000    0     1.008    0.163786    0.064842   -1.786434

--------------------------------
INTERNAL COORDINATES (ANGSTROEM)
--------------------------------
 C      0   0   0     0.000000000000     0.00000000     0.00000000
 C      1   0   0     1.439762847297     0.00000000     0.00000000
 N      1   2   0     1.291036545542   125.02486672     0.00000000
 H      2   1   3     1.082393926880   118.35030229   163.71456538
 C      2   1   3     1.346108892476   118.64222546   355.94089564
 N      3   1   2     1.382836316015   120.94350936    15.34111410
 H      5   2   1     1.082657028649   122.38122717   165.15264023
 O      6   3   1     1.490591986463   111.71199465    51.28666614
 C      8   6   3     1.386545519180    65.23646425   252.93236692
 H      9   8   6     1.085960245617   115.91113704   256.75752990
 H      1   2   3     1.086241887403   118.97506710   192.37934276

---------------------------
INTERNAL COORDINATES (A.U.)
---------------------------
 C      0   0   0     0.000000000000     0.00000000     0.00000000
 C      1   0   0     2.720757479186     0.00000000     0.00000000
 N      1   2   0     2.439705499957   125.02486672     0.00000000
 H      2   1   3     2.045428090822   118.35030229   163.71456538
 C      2   1   3     2.543777153216   118.64222546   355.94089564
 N      3   1   2     2.613181925308   120.94350936    15.34111410
 H      5   2   1     2.045925281111   122.38122717   165.15264023
 O      6   3   1     2.816810631834   111.71199465    51.28666614
 C      8   6   3     2.620191303466    65.23646425   252.93236692
 H      9   8   6     2.052167456542   115.91113704   256.75752990
 H      1   2   3     2.052699682386   118.97506710   192.37934276

---------------------
BASIS SET INFORMATION
---------------------
There are 4 groups of distinct atoms

 Group   1 Type C   : 11s6p2d1f contracted to 5s3p2d1f pattern {62111/411/11/1}
 Group   2 Type N   : 11s6p2d1f contracted to 5s3p2d1f pattern {62111/411/11/1}
 Group   3 Type H   : 5s1p contracted to 3s1p pattern {311/1}
 Group   4 Type O   : 11s6p2d1f contracted to 5s3p2d1f pattern {62111/411/11/1}

Atom   0C    basis set group =>   1
Atom   1C    basis set group =>   1
Atom   2N    basis set group =>   2
Atom   3H    basis set group =>   3
Atom   4C    basis set group =>   1
Atom   5N    basis set group =>   2
Atom   6H    basis set group =>   3
Atom   7O    basis set group =>   4
Atom   8C    basis set group =>   1
Atom   9H    basis set group =>   3
Atom  10H    basis set group =>   3
---------------------------------
AUXILIARY/J BASIS SET INFORMATION
---------------------------------
There are 4 groups of distinct atoms

 Group   1 Type C   : 12s5p4d2f1g contracted to 6s4p3d1f1g pattern {711111/2111/211/2/1}
 Group   2 Type N   : 12s5p4d2f1g contracted to 6s4p3d1f1g pattern {711111/2111/211/2/1}
 Group   3 Type H   : 5s2p1d contracted to 3s1p1d pattern {311/2/1}
 Group   4 Type O   : 12s5p4d2f1g contracted to 6s4p3d1f1g pattern {711111/2111/211/2/1}

Atom   0C    basis set group =>   1
Atom   1C    basis set group =>   1
Atom   2N    basis set group =>   2
Atom   3H    basis set group =>   3
Atom   4C    basis set group =>   1
Atom   5N    basis set group =>   2
Atom   6H    basis set group =>   3
Atom   7O    basis set group =>   4
Atom   8C    basis set group =>   1
Atom   9H    basis set group =>   3
Atom  10H    basis set group =>   3


           ************************************************************
           *        Program running with 2 parallel MPI-processes     *
           *              working on a common directory               *
           ************************************************************
------------------------------------------------------------------------------
                           ORCA GTO INTEGRAL CALCULATION
                           -- RI-GTO INTEGRALS CHOSEN --
------------------------------------------------------------------------------
------------------------------------------------------------------------------
                   ___                                                        
                  /   \      - P O W E R E D   B Y -                         
                 /     \                                                     
                 |  |  |   _    _      __       _____    __    __             
                 |  |  |  | |  | |    /  \     |  _  \  |  |  /  |          
                  \  \/   | |  | |   /    \    | | | |  |  | /  /          
                 / \  \   | |__| |  /  /\  \   | |_| |  |  |/  /          
                |  |  |   |  __  | /  /__\  \  |    /   |      \           
                |  |  |   | |  | | |   __   |  |    \   |  |\   \          
                \     /   | |  | | |  |  |  |  | |\  \  |  | \   \       
                 \___/    |_|  |_| |__|  |__|  |_| \__\ |__|  \__/        
                                                                              
                      - O R C A' S   B I G   F R I E N D -                    
                                      &                                       
                       - I N T E G R A L  F E E D E R -                       
                                                                              
 v1 FN, 2020, v2 2021                                                         
------------------------------------------------------------------------------


Reading SHARK input file Pyridazine-oxaizridine-m062xdeftzvpJ-optf.SHARKINP.tmp ... ok
----------------------
SHARK INTEGRAL PACKAGE
----------------------

Number of atoms                             ...     11
Number of basis functions                   ...    241
Number of shells                            ...     93
Maximum angular momentum                    ...      3
Integral batch strategy                     ... SHARK/LIBINT Hybrid
RI-J (if used) integral strategy            ... SPLIT-RIJ (Revised 2003 algorithm where possible)
Printlevel                                  ...      1
Contraction scheme used                     ... SEGMENTED contraction
Coulomb Range Separation                    ... NOT USED
Exchange Range Separation                   ... NOT USED
Finite Nucleus Model                        ... NOT USED
Auxiliary Coulomb fitting basis             ... AVAILABLE
   # of basis functions in Aux-J            ...    387
   # of shells in Aux-J                     ...    125
   Maximum angular momentum in Aux-J        ...      4
Auxiliary J/K fitting basis                 ... NOT available
Auxiliary Correlation fitting basis         ... NOT available
Auxiliary 'external' fitting basis          ... NOT available
Integral threshold                          ...     2.500000e-11
Primitive cut-off                           ...     2.500000e-12
Primitive pair pre-selection threshold      ...     2.500000e-12

Calculating pre-screening integrals         ... done (  0.1 sec) Dimension = 93
Organizing shell pair data                  ... done (  0.2 sec)
Shell pair information
Total number of shell pairs                 ...      4371
Shell pairs after pre-screening             ...      4202
Total number of primitive shell pairs       ...     13696
Primitive shell pairs kept                  ...     10237
          la=0 lb=0:   1026 shell pairs
          la=1 lb=0:   1136 shell pairs
          la=1 lb=1:    324 shell pairs
          la=2 lb=0:    636 shell pairs
          la=2 lb=1:    349 shell pairs
          la=2 lb=2:    105 shell pairs
          la=3 lb=0:    325 shell pairs
          la=3 lb=1:    175 shell pairs
          la=3 lb=2:     98 shell pairs
          la=3 lb=3:     28 shell pairs

Calculating one electron integrals          ... done (  0.0 sec)
Calculating RI/J V-Matrix + Cholesky decomp.... done (  0.2 sec)
Calculating Nuclear repulsion               ... done (  0.0 sec) ENN=    286.641397711074 Eh

SHARK setup successfully completed in   1.3 seconds

Maximum memory used throughout the entire GTOINT-calculation: 13.9 MB


           ************************************************************
           *        Program running with 2 parallel MPI-processes     *
           *              working on a common directory               *
           ************************************************************
-------------------------------------------------------------------------------
                                 ORCA SCF
-------------------------------------------------------------------------------

------------
SCF SETTINGS
------------
Hamiltonian:
 Density Functional     Method          .... DFT(GTOs)
 Exchange Functional    Exchange        .... M062X
 Correlation Functional Correlation     .... M062X
 Gradients option       PostSCFGGA      .... off
 Hybrid DFT is turned on
   Fraction HF Exchange ScalHFX         ....  0.540000
   Scaling of DF-GGA-X  ScalDFX         ....  0.460000
   Scaling of DF-GGA-C  ScalDFC         ....  1.000000
   Scaling of DF-LDA-C  ScalLDAC        ....  1.000000
   Perturbative correction              ....  0.000000
   Density functional embedding theory  .... OFF
 RI-approximation to the Coulomb term is turned on
   Number of AuxJ basis functions       .... 387
   RIJ-COSX (HFX calculated with COS-X)).... on


General Settings:
 Integral files         IntName         .... Pyridazine-oxaizridine-m062xdeftzvpJ-optf
 Hartree-Fock type      HFTyp           .... RHF
 Total Charge           Charge          ....    0
 Multiplicity           Mult            ....    1
 Number of Electrons    NEL             ....   50
 Basis Dimension        Dim             ....  241
 Nuclear Repulsion      ENuc            ....    286.6413977111 Eh

Convergence Acceleration:
 DIIS                   CNVDIIS         .... on
   Start iteration      DIISMaxIt       ....     0
   Startup error        DIISStart       ....  0.200000
   # of expansion vecs  DIISMaxEq       ....     5
   Bias factor          DIISBfac        ....   1.050
   Max. coefficient     DIISMaxC        ....  10.000
 Trust-Rad. Augm. Hess. CNVTRAH         .... auto
   Auto Start mean grad. ratio tolernc. ....  1.125000
   Auto Start start iteration           ....    20
   Auto Start num. interpolation iter.  ....    10
   Max. Number of Micro iterations      ....    16
   Max. Number of Macro iterations      .... Maxiter - #DIIS iter
   Number of Davidson start vectors     ....     2
   Converg. threshold I  (grad. norm)   ....   1.000e-05
   Converg. threshold II (energy diff.) ....   1.000e-08
   Grad. Scal. Fac. for Micro threshold ....   0.100
   Minimum threshold for Micro iter.    ....   0.010
   NR start threshold (gradient norm)   ....   0.001
   Initial trust radius                 ....   0.400
   Minimum AH scaling param. (alpha)    ....   1.000
   Maximum AH scaling param. (alpha)    .... 1000.000
   Orbital update algorithm             .... Taylor
   White noise on init. David. guess    .... on
   Maximum white noise                  ....   0.010
   Quad. conv. algorithm                .... NR
 SOSCF                  CNVSOSCF        .... on
   Start iteration      SOSCFMaxIt      ....   150
   Startup grad/error   SOSCFStart      ....  0.001000
 Level Shifting         CNVShift        .... on
   Level shift para.    LevelShift      ....    0.2500
   Turn off err/grad.   ShiftErr        ....    0.0000
 Zerner damping         CNVZerner       .... off
 Static damping         CNVDamp         .... on
   Fraction old density DampFac         ....    0.8500
   Max. Damping (<1)    DampMax         ....    0.9800
   Min. Damping (>=0)   DampMin         ....    0.0000
   Turn off err/grad.   DampErr         ....    0.0300
 Fernandez-Rico         CNVRico         .... off

SCF Procedure:
 Maximum # iterations   MaxIter         ....   550
 SCF integral mode      SCFMode         .... Direct
   Integral package                     .... SHARK and LIBINT hybrid scheme
 Reset frequency        DirectResetFreq ....    20
 Integral Threshold     Thresh          ....  2.500e-11 Eh
 Primitive CutOff       TCut            ....  2.500e-12 Eh

Convergence Tolerance:
 Convergence Check Mode ConvCheckMode   .... Total+1el-Energy
 Convergence forced     ConvForced      .... 0
 Energy Change          TolE            ....  1.000e-08 Eh
 1-El. energy change                    ....  1.000e-05 Eh
 Orbital Gradient       TolG            ....  1.000e-05
 Orbital Rotation angle TolX            ....  1.000e-05
 DIIS Error             TolErr          ....  5.000e-07


Diagonalization of the overlap matrix:
Smallest eigenvalue                        ... 7.315e-05
Time for diagonalization                   ...    0.023 sec
Threshold for overlap eigenvalues          ... 1.000e-08
Number of eigenvalues below threshold      ... 0
Time for construction of square roots      ...    0.125 sec
Total time needed                          ...    0.151 sec

Time for model grid setup =    0.347 sec

------------------------------
INITIAL GUESS: MODEL POTENTIAL
------------------------------
Loading Hartree-Fock densities                     ... done
Calculating cut-offs                               ... done
Initializing the effective Hamiltonian             ... done
Setting up the integral package (SHARK)            ... done
Starting the Coulomb interaction                   ... done (   0.4 sec)
Reading the grid                                   ... done
Mapping shells                                     ... done
Starting the XC term evaluation                    ... done (   0.3 sec)
  promolecular density results
     # of electrons  =     49.997864423
     EX              =    -42.798564079
     EC              =     -1.678392764
     EX+EC           =    -44.476956843
Transforming the Hamiltonian                       ... done (   0.0 sec)
Diagonalizing the Hamiltonian                      ... done (   0.0 sec)
Back transforming the eigenvectors                 ... done (   0.0 sec)
Now organizing SCF variables                       ... done
                      ------------------
                      INITIAL GUESS DONE (   1.1 sec)
                      ------------------
-------------------
DFT GRID GENERATION
-------------------

General Integration Accuracy     IntAcc      ... 4.959
Radial Grid Type                 RadialGrid  ... OptM3 with GC (2021)
Angular Grid (max. ang.)         AngularGrid ... 6 (Lebedev-590)
Angular grid pruning method      GridPruning ... 4 (adaptive)
Weight generation scheme         WeightScheme... Becke
Basis function cutoff            BFCut       ... 1.0000e-11
Integration weight cutoff        WCut        ... 1.0000e-14
Angular grids for H and He will be reduced by one unit
Partially contracted basis set               ... off
Rotationally invariant grid construction     ... off

Total number of grid points                  ...   135667
Total number of batches                      ...     2126
Average number of points per batch           ...       63
Average number of grid points per atom       ...    12333
Time for grid setup =    2.531 sec

--------------------
COSX GRID GENERATION
--------------------

GRIDX 1
-------
General Integration Accuracy     IntAcc      ... 4.020
Radial Grid Type                 RadialGrid  ... OptM3 with GC (2021)
Angular Grid (max. ang.)         AngularGrid ... 2 (Lebedev-110)
Angular grid pruning method      GridPruning ... 4 (adaptive)
Weight generation scheme         WeightScheme... Becke
Basis function cutoff            BFCut       ... 1.0000e-11
Integration weight cutoff        WCut        ... 1.0000e-14
Angular grids for H and He will be reduced by one unit
Partially contracted basis set               ... on
Rotationally invariant grid construction     ... off

Total number of grid points                  ...    15821
Total number of batches                      ...      252
Average number of points per batch           ...       62
Average number of grid points per atom       ...     1438
UseSFitting                                  ... on

GRIDX 2
-------
General Integration Accuracy     IntAcc      ... 4.338
Radial Grid Type                 RadialGrid  ... OptM3 with GC (2021)
Angular Grid (max. ang.)         AngularGrid ... 3 (Lebedev-194)
Angular grid pruning method      GridPruning ... 4 (adaptive)
Weight generation scheme         WeightScheme... Becke
Basis function cutoff            BFCut       ... 1.0000e-11
Integration weight cutoff        WCut        ... 1.0000e-14
Angular grids for H and He will be reduced by one unit
Partially contracted basis set               ... on
Rotationally invariant grid construction     ... off

Total number of grid points                  ...    34911
Total number of batches                      ...      550
Average number of points per batch           ...       63
Average number of grid points per atom       ...     3174
UseSFitting                                  ... on

GRIDX 3
-------
General Integration Accuracy     IntAcc      ... 4.871
Radial Grid Type                 RadialGrid  ... OptM3 with GC (2021)
Angular Grid (max. ang.)         AngularGrid ... 4 (Lebedev-302)
Angular grid pruning method      GridPruning ... 4 (adaptive)
Weight generation scheme         WeightScheme... Becke
Basis function cutoff            BFCut       ... 1.0000e-11
Integration weight cutoff        WCut        ... 1.0000e-14
Angular grids for H and He will be reduced by one unit
Partially contracted basis set               ... on
Rotationally invariant grid construction     ... off

Total number of grid points                  ...    65040
Total number of batches                      ...     1021
Average number of points per batch           ...       63
Average number of grid points per atom       ...     5913
UseSFitting                                  ... on

Time for X-Grid setup             =    2.983 sec

--------------
SCF ITERATIONS
--------------
ITER       Energy         Delta-E        Max-DP      RMS-DP      [F,P]     Damp
               ***  Starting incremental Fock matrix formation  ***
  0   -339.2750242393   0.000000000000 0.01318566  0.00043363  0.1423608 0.8500
  1   -339.3014712497  -0.026447010434 0.01896223  0.00045798  0.1093588 0.8500
                               ***Turning on DIIS***
  2   -339.3205735564  -0.019102306664 0.01597749  0.00038128  0.0787824 0.8500
  3   -339.3342255500  -0.013651993612 0.00775340  0.00025320  0.0556885 0.8500
  4   -339.3446193807  -0.010393830727 0.00631580  0.00018698  0.0440725 0.8500
  5   -339.3527504259  -0.008131045184 0.00521579  0.00015459  0.0374750 0.8500
  6   -339.3593863730  -0.006635947081 0.00437507  0.00013243  0.0318600 0.8500
  7   -339.3649084679  -0.005522094887 0.02455596  0.00076231  0.0270753 0.0000
  8   -339.3945434731  -0.029635005194 0.00273295  0.00004934  0.0030458 0.0000
  9   -339.3945673537  -0.000023880668 0.00072348  0.00001944  0.0027700 0.0000
                      *** Initiating the SOSCF procedure ***
                           *** Shutting down DIIS ***
                      *** Re-Reading the Fockian *** 
                      *** Removing any level shift *** 
ITER      Energy       Delta-E        Grad      Rot      Max-DP    RMS-DP
 10   -339.39458480  -0.0000174463  0.000669  0.000669  0.000263  0.000012
               *** Restarting incremental Fock matrix formation ***
 11   -339.39459062  -0.0000058213  0.000387  0.001427  0.000293  0.000013
 12   -339.39459293  -0.0000023133  0.000186  0.001928  0.000385  0.000016
 13   -339.39459351  -0.0000005728  0.000134  0.000610  0.000126  0.000006
 14   -339.39459398  -0.0000004716  0.000014  0.000077  0.000093  0.000002
 15   -339.39459398  -0.0000000021  0.000018  0.000067  0.000029  0.000001
 16   -339.39459399  -0.0000000113  0.000003  0.000011  0.000005  0.000000
                  ***Gradient check signals convergence***
              ***Rediagonalizing the Fockian in SOSCF/NRSCF***

               *****************************************************
               *                     SUCCESS                       *
               *           SCF CONVERGED AFTER  17 CYCLES          *
               *****************************************************

Old exchange energy                            =    -23.465104668 Eh
New exchange energy                            =    -23.465102968 Eh
Exchange energy change after final integration =      0.000001700 Eh
Total energy after final integration           =   -339.394592292 Eh
Final COS-X integration done in                =    13.506 sec

----------------
TOTAL SCF ENERGY
----------------

Total Energy       :         -339.39459229 Eh           -9235.39637 eV

Components:
Nuclear Repulsion  :          286.64139771 Eh            7799.90897 eV
Electronic Energy  :         -626.03599000 Eh          -17035.30535 eV
One Electron Energy:        -1027.63083983 Eh          -27963.25678 eV
Two Electron Energy:          401.59484983 Eh           10927.95143 eV
Max COSX asymmetry :            0.00000063 Eh               0.00002 eV

Virial components:
Potential Energy   :         -677.15399682 Eh          -18426.29703 eV
Kinetic Energy     :          337.75940452 Eh            9190.90065 eV
Virial Ratio       :            2.00484128


DFT components:
N(Alpha)           :       24.999999626068 electrons
N(Beta)            :       24.999999626068 electrons
N(Total)           :       49.999999252137 electrons
E(XC)              :      -21.908778605522 Eh       
DFET-embed. en.    :        0.000000000000 Eh       

---------------
SCF CONVERGENCE
---------------

  Last Energy change         ...    5.4018e-10  Tolerance :   1.0000e-08
  Last MAX-Density change    ...    1.9984e-15  Tolerance :   1.0000e-07
  Last RMS-Density change    ...    2.3561e-17  Tolerance :   5.0000e-09
  Last Orbital Gradient      ...    1.4144e-06  Tolerance :   1.0000e-05
  Last Orbital Rotation      ...    2.7466e-06  Tolerance :   1.0000e-05

             **** THE GBW FILE WAS UPDATED (Pyridazine-oxaizridine-m062xdeftzvpJ-optf.gbw) ****
             **** DENSITY Pyridazine-oxaizridine-m062xdeftzvpJ-optf.scfp WAS UPDATED ****
             **** ENERGY FILE WAS UPDATED (Pyridazine-oxaizridine-m062xdeftzvpJ-optf.en.tmp) ****
             **** THE GBW FILE WAS UPDATED (Pyridazine-oxaizridine-m062xdeftzvpJ-optf.gbw) ****
             **** DENSITY Pyridazine-oxaizridine-m062xdeftzvpJ-optf.scfp WAS UPDATED ****
----------------
ORBITAL ENERGIES
----------------

  NO   OCC          E(Eh)            E(eV) 
   0   2.0000     -19.686218      -535.6892 
   1   2.0000     -14.857506      -404.2933 
   2   2.0000     -14.793010      -402.5383 
   3   2.0000     -10.645674      -289.6835 
   4   2.0000     -10.604941      -288.5751 
   5   2.0000     -10.581403      -287.9346 
   6   2.0000     -10.576492      -287.8010 
   7   2.0000      -1.264263       -34.4023 
   8   2.0000      -1.076962       -29.3056 
   9   2.0000      -0.939647       -25.5691 
  10   2.0000      -0.871311       -23.7096 
  11   2.0000      -0.783031       -21.3074 
  12   2.0000      -0.731957       -19.9176 
  13   2.0000      -0.633342       -17.2341 
  14   2.0000      -0.616661       -16.7802 
  15   2.0000      -0.596471       -16.2308 
  16   2.0000      -0.549368       -14.9491 
  17   2.0000      -0.516184       -14.0461 
  18   2.0000      -0.498896       -13.5757 
  19   2.0000      -0.485769       -13.2184 
  20   2.0000      -0.427930       -11.6446 
  21   2.0000      -0.407233       -11.0814 
  22   2.0000      -0.367555       -10.0017 
  23   2.0000      -0.341497        -9.2926 
  24   2.0000      -0.321793        -8.7564 
  25   0.0000      -0.050341        -1.3698 
  26   0.0000       0.034958         0.9512 
  27   0.0000       0.069241         1.8841 
  28   0.0000       0.093809         2.5527 
  29   0.0000       0.110758         3.0139 
  30   0.0000       0.114076         3.1042 
  31   0.0000       0.130664         3.5556 
  32   0.0000       0.152949         4.1619 
  33   0.0000       0.163679         4.4539 
  34   0.0000       0.189909         5.1677 
  35   0.0000       0.200531         5.4567 
  36   0.0000       0.229353         6.2410 
  37   0.0000       0.239289         6.5114 
  38   0.0000       0.260725         7.0947 
  39   0.0000       0.269422         7.3313 
  40   0.0000       0.273912         7.4535 
  41   0.0000       0.291108         7.9215 
  42   0.0000       0.295883         8.0514 
  43   0.0000       0.329584         8.9684 
  44   0.0000       0.338495         9.2109 
  45   0.0000       0.355070         9.6620 
  46   0.0000       0.372270        10.1300 
  47   0.0000       0.387048        10.5321 
  48   0.0000       0.389591        10.6013 
  49   0.0000       0.409997        11.1566 
  50   0.0000       0.426662        11.6101 
  51   0.0000       0.438060        11.9202 
  52   0.0000       0.449431        12.2296 
  53   0.0000       0.453340        12.3360 
  54   0.0000       0.459242        12.4966 
  55   0.0000       0.467613        12.7244 
  56   0.0000       0.485974        13.2240 
  57   0.0000       0.506337        13.7781 
  58   0.0000       0.522415        14.2156 
  59   0.0000       0.545812        14.8523 
  60   0.0000       0.557815        15.1789 
  61   0.0000       0.588640        16.0177 
  62   0.0000       0.616998        16.7894 
  63   0.0000       0.631893        17.1947 
  64   0.0000       0.659234        17.9387 
  65   0.0000       0.659769        17.9532 
  66   0.0000       0.688241        18.7280 
  67   0.0000       0.694993        18.9117 
  68   0.0000       0.711218        19.3532 
  69   0.0000       0.734510        19.9870 
  70   0.0000       0.772780        21.0284 
  71   0.0000       0.815484        22.1904 
  72   0.0000       0.846168        23.0254 
  73   0.0000       0.872903        23.7529 
  74   0.0000       0.883981        24.0544 
  75   0.0000       0.890657        24.2360 
  76   0.0000       0.954310        25.9681 
  77   0.0000       0.963352        26.2142 
  78   0.0000       1.014854        27.6156 
  79   0.0000       1.024507        27.8783 
  80   0.0000       1.068723        29.0814 
  81   0.0000       1.095169        29.8011 
  82   0.0000       1.114183        30.3185 
  83   0.0000       1.132058        30.8049 
  84   0.0000       1.137137        30.9431 
  85   0.0000       1.187515        32.3139 
  86   0.0000       1.219804        33.1925 
  87   0.0000       1.244730        33.8708 
  88   0.0000       1.270723        34.5781 
  89   0.0000       1.287812        35.0431 
  90   0.0000       1.315791        35.8045 
  91   0.0000       1.361106        37.0376 
  92   0.0000       1.382679        37.6246 
  93   0.0000       1.429649        38.9027 
  94   0.0000       1.449909        39.4540 
  95   0.0000       1.462038        39.7841 
  96   0.0000       1.471990        40.0549 
  97   0.0000       1.491799        40.5939 
  98   0.0000       1.522677        41.4341 
  99   0.0000       1.544737        42.0344 
 100   0.0000       1.558771        42.4163 
 101   0.0000       1.596536        43.4440 
 102   0.0000       1.632111        44.4120 
 103   0.0000       1.666845        45.3572 
 104   0.0000       1.690866        46.0108 
 105   0.0000       1.713529        46.6275 
 106   0.0000       1.725527        46.9540 
 107   0.0000       1.737910        47.2909 
 108   0.0000       1.766309        48.0637 
 109   0.0000       1.808277        49.2057 
 110   0.0000       1.829407        49.7807 
 111   0.0000       1.857775        50.5526 
 112   0.0000       1.895590        51.5816 
 113   0.0000       1.939981        52.7896 
 114   0.0000       1.949378        53.0453 
 115   0.0000       1.991815        54.2000 
 116   0.0000       2.033604        55.3372 
 117   0.0000       2.046650        55.6922 
 118   0.0000       2.065311        56.2000 
 119   0.0000       2.109265        57.3960 
 120   0.0000       2.117092        57.6090 
 121   0.0000       2.142190        58.2920 
 122   0.0000       2.167605        58.9835 
 123   0.0000       2.191456        59.6325 
 124   0.0000       2.226304        60.5808 
 125   0.0000       2.262816        61.5743 
 126   0.0000       2.279192        62.0200 
 127   0.0000       2.315326        63.0032 
 128   0.0000       2.349330        63.9285 
 129   0.0000       2.390275        65.0427 
 130   0.0000       2.456228        66.8374 
 131   0.0000       2.501119        68.0589 
 132   0.0000       2.512863        68.3785 
 133   0.0000       2.533956        68.9525 
 134   0.0000       2.551217        69.4221 
 135   0.0000       2.578277        70.1585 
 136   0.0000       2.585796        70.3631 
 137   0.0000       2.616375        71.1952 
 138   0.0000       2.637138        71.7602 
 139   0.0000       2.663630        72.4811 
 140   0.0000       2.717276        73.9408 
 141   0.0000       2.726100        74.1809 
 142   0.0000       2.759048        75.0775 
 143   0.0000       2.768381        75.3315 
 144   0.0000       2.796773        76.1041 
 145   0.0000       2.834329        77.1260 
 146   0.0000       2.848105        77.5009 
 147   0.0000       2.855851        77.7117 
 148   0.0000       2.865506        77.9744 
 149   0.0000       2.896597        78.8204 
 150   0.0000       2.946120        80.1680 
 151   0.0000       2.956939        80.4624 
 152   0.0000       2.984197        81.2041 
 153   0.0000       3.012929        81.9860 
 154   0.0000       3.025463        82.3270 
 155   0.0000       3.064118        83.3789 
 156   0.0000       3.085400        83.9580 
 157   0.0000       3.119062        84.8740 
 158   0.0000       3.137099        85.3648 
 159   0.0000       3.159376        85.9710 
 160   0.0000       3.169676        86.2513 
 161   0.0000       3.209658        87.3392 
 162   0.0000       3.211139        87.3795 
 163   0.0000       3.243222        88.2525 
 164   0.0000       3.254738        88.5659 
 165   0.0000       3.292915        89.6048 
 166   0.0000       3.320371        90.3519 
 167   0.0000       3.335518        90.7641 
 168   0.0000       3.366950        91.6194 
 169   0.0000       3.417580        92.9971 
 170   0.0000       3.431339        93.3715 
 171   0.0000       3.483468        94.7900 
 172   0.0000       3.503818        95.3437 
 173   0.0000       3.535960        96.2184 
 174   0.0000       3.560996        96.8996 
 175   0.0000       3.604214        98.0756 
 176   0.0000       3.651678        99.3672 
 177   0.0000       3.664082        99.7048 
 178   0.0000       3.716865       101.1410 
 179   0.0000       3.738064       101.7179 
 180   0.0000       3.793128       103.2163 
 181   0.0000       3.841688       104.5377 
 182   0.0000       3.889336       105.8342 
 183   0.0000       3.930146       106.9447 
 184   0.0000       3.959888       107.7540 
 185   0.0000       4.004550       108.9694 
 186   0.0000       4.022315       109.4528 
 187   0.0000       4.045558       110.0852 
 188   0.0000       4.111910       111.8907 
 189   0.0000       4.135539       112.5337 
 190   0.0000       4.167824       113.4123 
 191   0.0000       4.210852       114.5831 
 192   0.0000       4.238249       115.3286 
 193   0.0000       4.292123       116.7946 
 194   0.0000       4.329516       117.8121 
 195   0.0000       4.413493       120.0973 
 196   0.0000       4.454868       121.2231 
 197   0.0000       4.480420       121.9184 
 198   0.0000       4.547307       123.7385 
 199   0.0000       4.626745       125.9001 
 200   0.0000       4.638445       126.2185 
 201   0.0000       4.684281       127.4658 
 202   0.0000       4.726018       128.6015 
 203   0.0000       4.768666       129.7620 
 204   0.0000       4.798380       130.5705 
 205   0.0000       4.839744       131.6961 
 206   0.0000       4.867813       132.4599 
 207   0.0000       4.926198       134.0487 
 208   0.0000       4.946736       134.6075 
 209   0.0000       5.019276       136.5814 
 210   0.0000       5.034538       136.9967 
 211   0.0000       5.094191       138.6200 
 212   0.0000       5.199092       141.4745 
 213   0.0000       5.246094       142.7535 
 214   0.0000       5.261750       143.1795 
 215   0.0000       5.305295       144.3644 
 216   0.0000       5.326694       144.9467 
 217   0.0000       5.402284       147.0036 
 218   0.0000       5.445536       148.1806 
 219   0.0000       5.524068       150.3175 
 220   0.0000       5.583599       151.9374 
 221   0.0000       5.670546       154.3034 
 222   0.0000       5.797188       157.7495 
 223   0.0000       5.874058       159.8412 
 224   0.0000       5.906897       160.7348 
 225   0.0000       5.994479       163.1181 
 226   0.0000       6.116849       166.4479 
 227   0.0000       6.370191       173.3417 
 228   0.0000       6.604981       179.7307 
 229   0.0000       6.666690       181.4099 
 230   0.0000       6.822181       185.6410 
 231   0.0000       6.840973       186.1523 
 232   0.0000       6.979727       189.9280 
 233   0.0000       7.443293       202.5423 
 234   0.0000      22.272632       606.0691 
 235   0.0000      22.574581       614.2856 
 236   0.0000      22.746707       618.9694 
 237   0.0000      22.960435       624.7852 
 238   0.0000      32.187217       875.8587 
 239   0.0000      32.397204       881.5727 
 240   0.0000      44.114606      1200.4194 

                    ********************************
                    * MULLIKEN POPULATION ANALYSIS *
                    ********************************

-----------------------
MULLIKEN ATOMIC CHARGES
-----------------------
   0 C :   -0.052531
   1 C :   -0.141741
   2 N :   -0.115807
   3 H :    0.148623
   4 C :   -0.146495
   5 N :   -0.018584
   6 H :    0.161079
   7 O :   -0.236580
   8 C :    0.113670
   9 H :    0.138473
  10 H :    0.149893
Sum of atomic charges:    0.0000000

--------------------------------
MULLIKEN REDUCED ORBITAL CHARGES
--------------------------------
  0 C s       :     3.206845  s :     3.206845
      pz      :     1.007112  p :     2.726189
      px      :     0.849418
      py      :     0.869659
      dz2     :     0.031427  d :     0.109602
      dxz     :     0.019701
      dyz     :     0.010123
      dx2y2   :     0.024016
      dxy     :     0.024335
      f0      :     0.000698  f :     0.009895
      f+1     :     0.002252
      f-1     :     0.000633
      f+2     :     0.001351
      f-2     :     0.001294
      f+3     :     0.002108
      f-3     :     0.001560
  1 C s       :     3.228626  s :     3.228626
      pz      :     0.920859  p :     2.848105
      px      :     0.949051
      py      :     0.978196
      dz2     :     0.009399  d :     0.058696
      dxz     :     0.019142
      dyz     :     0.015066
      dx2y2   :     0.007624
      dxy     :     0.007466
      f0      :     0.000717  f :     0.006314
      f+1     :     0.001704
      f-1     :     0.001505
      f+2     :     0.000577
      f-2     :     0.000397
      f+3     :     0.000761
      f-3     :     0.000654
  2 N s       :     3.626853  s :     3.626853
      pz      :     0.929419  p :     3.415122
      px      :     1.254031
      py      :     1.231673
      dz2     :     0.020802  d :     0.068737
      dxz     :     0.016015
      dyz     :     0.010433
      dx2y2   :     0.012518
      dxy     :     0.008969
      f0      :     0.001391  f :     0.005094
      f+1     :     0.001357
      f-1     :     0.000786
      f+2     :     0.000447
      f-2     :     0.000372
      f+3     :     0.000507
      f-3     :     0.000233
  3 H s       :     0.830899  s :     0.830899
      pz      :     0.005889  p :     0.020478
      px      :     0.010289
      py      :     0.004299
  4 C s       :     3.230344  s :     3.230344
      pz      :     0.935597  p :     2.850243
      px      :     0.986270
      py      :     0.928376
      dz2     :     0.008388  d :     0.059411
      dxz     :     0.022143
      dyz     :     0.015273
      dx2y2   :     0.006418
      dxy     :     0.007189
      f0      :     0.000774  f :     0.006497
      f+1     :     0.001774
      f-1     :     0.001397
      f+2     :     0.000776
      f-2     :     0.000308
      f+3     :     0.000756
      f-3     :     0.000713
  5 N s       :     3.727964  s :     3.727964
      pz      :     0.971239  p :     3.177816
      px      :     1.265495
      py      :     0.941083
      dz2     :     0.023392  d :     0.105757
      dxz     :     0.021735
      dyz     :     0.025386
      dx2y2   :     0.021049
      dxy     :     0.014194
      f0      :     0.001433  f :     0.007046
      f+1     :     0.000988
      f-1     :     0.001499
      f+2     :     0.000976
      f-2     :     0.000602
      f+3     :     0.000770
      f-3     :     0.000778
  6 H s       :     0.818481  s :     0.818481
      pz      :     0.005518  p :     0.020440
      px      :     0.011084
      py      :     0.003838
  7 O s       :     3.895269  s :     3.895269
      pz      :     1.691093  p :     4.294993
      px      :     1.423335
      py      :     1.180565
      dz2     :     0.005784  d :     0.043862
      dxz     :     0.003959
      dyz     :     0.007820
      dx2y2   :     0.012725
      dxy     :     0.013575
      f0      :     0.000351  f :     0.002456
      f+1     :     0.000180
      f-1     :     0.000360
      f+2     :     0.000277
      f-2     :     0.000241
      f+3     :     0.000538
      f-3     :     0.000509
  8 C s       :     3.175549  s :     3.175549
      pz      :     0.982242  p :     2.538142
      px      :     0.734552
      py      :     0.821348
      dz2     :     0.025753  d :     0.157636
      dxz     :     0.034485
      dyz     :     0.026767
      dx2y2   :     0.033113
      dxy     :     0.037518
      f0      :     0.001490  f :     0.015003
      f+1     :     0.002593
      f-1     :     0.001004
      f+2     :     0.001619
      f-2     :     0.002691
      f+3     :     0.003145
      f-3     :     0.002460
  9 H s       :     0.841187  s :     0.841187
      pz      :     0.013613  p :     0.020340
      px      :     0.002398
      py      :     0.004329
 10 H s       :     0.829770  s :     0.829770
      pz      :     0.014565  p :     0.020337
      px      :     0.002577
      py      :     0.003195


                     *******************************
                     * LOEWDIN POPULATION ANALYSIS *
                     *******************************

----------------------
LOEWDIN ATOMIC CHARGES
----------------------
   0 C :   -0.217884
   1 C :   -0.151142
   2 N :    0.052992
   3 H :    0.152129
   4 C :   -0.127445
   5 N :    0.052008
   6 H :    0.151234
   7 O :    0.134240
   8 C :   -0.327692
   9 H :    0.134794
  10 H :    0.146766

-------------------------------
LOEWDIN REDUCED ORBITAL CHARGES
-------------------------------
  0 C s       :     2.794859  s :     2.794859
      pz      :     1.001053  p :     2.861073
      px      :     0.989692
      py      :     0.870327
      dz2     :     0.154713  d :     0.499446
      dxz     :     0.099614
      dyz     :     0.035212
      dx2y2   :     0.094817
      dxy     :     0.115090
      f0      :     0.004975  f :     0.062506
      f+1     :     0.017235
      f-1     :     0.004661
      f+2     :     0.009417
      f-2     :     0.009972
      f+3     :     0.007173
      f-3     :     0.009074
  1 C s       :     2.775877  s :     2.775877
      pz      :     1.071634  p :     2.960356
      px      :     0.994561
      py      :     0.894162
      dz2     :     0.088285  d :     0.371626
      dxz     :     0.153835
      dyz     :     0.060210
      dx2y2   :     0.035714
      dxy     :     0.033581
      f0      :     0.007945  f :     0.043283
      f+1     :     0.014116
      f-1     :     0.007332
      f+2     :     0.003732
      f-2     :     0.002928
      f+3     :     0.003734
      f-3     :     0.003496
  2 N s       :     3.112783  s :     3.112783
      pz      :     1.079706  p :     3.548396
      px      :     1.284068
      py      :     1.184622
      dz2     :     0.095137  d :     0.261961
      dxz     :     0.075205
      dyz     :     0.041992
      dx2y2   :     0.023664
      dxy     :     0.025964
      f0      :     0.006204  f :     0.023869
      f+1     :     0.006998
      f-1     :     0.004137
      f+2     :     0.001457
      f-2     :     0.001865
      f+3     :     0.001514
      f-3     :     0.001695
  3 H s       :     0.788881  s :     0.788881
      pz      :     0.017461  p :     0.058990
      px      :     0.028130
      py      :     0.013399
  4 C s       :     2.782159  s :     2.782159
      pz      :     1.075106  p :     2.930334
      px      :     1.000557
      py      :     0.854671
      dz2     :     0.088045  d :     0.371618
      dxz     :     0.160072
      dyz     :     0.057358
      dx2y2   :     0.035001
      dxy     :     0.031142
      f0      :     0.007952  f :     0.043334
      f+1     :     0.014209
      f-1     :     0.006757
      f+2     :     0.004196
      f-2     :     0.002829
      f+3     :     0.003795
      f-3     :     0.003596
  5 N s       :     3.211579  s :     3.211579
      pz      :     1.103365  p :     3.374251
      px      :     1.259339
      py      :     1.011547
      dz2     :     0.090013  d :     0.329891
      dxz     :     0.068480
      dyz     :     0.084016
      dx2y2   :     0.049644
      dxy     :     0.037738
      f0      :     0.007695  f :     0.032270
      f+1     :     0.004809
      f-1     :     0.007156
      f+2     :     0.003677
      f-2     :     0.002243
      f+3     :     0.002934
      f-3     :     0.003757
  6 H s       :     0.789466  s :     0.789466
      pz      :     0.016722  p :     0.059300
      px      :     0.029965
      py      :     0.012613
  7 O s       :     3.439259  s :     3.439259
      pz      :     1.607455  p :     4.314185
      px      :     1.439362
      py      :     1.267369
      dz2     :     0.014499  d :     0.104532
      dxz     :     0.012513
      dyz     :     0.017249
      dx2y2   :     0.028916
      dxy     :     0.031356
      f0      :     0.000705  f :     0.007784
      f+1     :     0.000482
      f-1     :     0.001048
      f+2     :     0.000948
      f-2     :     0.000910
      f+3     :     0.002178
      f-3     :     0.001513
  8 C s       :     2.783349  s :     2.783349
      pz      :     0.988393  p :     2.778814
      px      :     0.924589
      py      :     0.865832
      dz2     :     0.133378  d :     0.665076
      dxz     :     0.141274
      dyz     :     0.083549
      dx2y2   :     0.128161
      dxy     :     0.178714
      f0      :     0.009306  f :     0.100453
      f+1     :     0.016486
      f-1     :     0.005925
      f+2     :     0.009426
      f-2     :     0.020594
      f+3     :     0.020540
      f-3     :     0.018176
  9 H s       :     0.806527  s :     0.806527
      pz      :     0.036705  p :     0.058679
      px      :     0.008228
      py      :     0.013746
 10 H s       :     0.796024  s :     0.796024
      pz      :     0.037336  p :     0.057211
      px      :     0.009107
      py      :     0.010768


                      *****************************
                      * MAYER POPULATION ANALYSIS *
                      *****************************

  NA   - Mulliken gross atomic population
  ZA   - Total nuclear charge
  QA   - Mulliken gross atomic charge
  VA   - Mayer's total valence
  BVA  - Mayer's bonded valence
  FA   - Mayer's free valence

  ATOM       NA         ZA         QA         VA         BVA        FA
  0 C      6.0525     6.0000    -0.0525     4.0238     4.0238     0.0000
  1 C      6.1417     6.0000    -0.1417     3.8842     3.8842     0.0000
  2 N      7.1158     7.0000    -0.1158     2.9436     2.9436    -0.0000
  3 H      0.8514     1.0000     0.1486     0.9648     0.9648    -0.0000
  4 C      6.1465     6.0000    -0.1465     3.8021     3.8021     0.0000
  5 N      7.0186     7.0000    -0.0186     2.7470     2.7470     0.0000
  6 H      0.8389     1.0000     0.1611     0.9605     0.9605     0.0000
  7 O      8.2366     8.0000    -0.2366     1.9484     1.9484     0.0000
  8 C      5.8863     6.0000     0.1137     4.0239     4.0239     0.0000
  9 H      0.8615     1.0000     0.1385     0.9578     0.9578     0.0000
 10 H      0.8501     1.0000     0.1499     0.9601     0.9601    -0.0000

  Mayer bond orders larger than 0.100000
B(  0-C ,  1-C ) :   1.1244 B(  0-C ,  2-N ) :   1.7979 B(  0-C , 10-H ) :   0.9666 
B(  1-C ,  3-H ) :   0.9585 B(  1-C ,  4-C ) :   1.7320 B(  2-N ,  5-N ) :   0.9812 
B(  4-C ,  6-H ) :   0.9463 B(  4-C ,  8-C ) :   1.0782 B(  5-N ,  7-O ) :   0.8052 
B(  5-N ,  8-C ) :   0.8557 B(  7-O ,  8-C ) :   1.0549 B(  8-C ,  9-H ) :   0.9717 


-------
TIMINGS
-------

Total SCF time: 0 days 0 hours 3 min 6 sec 

Total time                  ....     186.003 sec
Sum of individual times     ....     179.833 sec  ( 96.7%)

Fock matrix formation       ....     171.661 sec  ( 92.3%)
  Split-RI-J                ....       6.218 sec  (  3.6% of F)
  Chain of spheres X        ....      99.439 sec  ( 57.9% of F)
  XC integration            ....      59.782 sec  ( 34.8% of F)
    Basis function eval.    ....       8.023 sec  ( 13.4% of XC)
    Density eval.           ....      16.548 sec  ( 27.7% of XC)
    XC-Functional eval.     ....       2.957 sec  (  4.9% of XC)
    XC-Potential eval.      ....      20.048 sec  ( 33.5% of XC)
Diagonalization             ....       0.349 sec  (  0.2%)
Density matrix formation    ....       0.017 sec  (  0.0%)
Population analysis         ....       0.154 sec  (  0.1%)
Initial guess               ....       0.742 sec  (  0.4%)
Orbital Transformation      ....       0.000 sec  (  0.0%)
Orbital Orthonormalization  ....       0.000 sec  (  0.0%)
DIIS solution               ....       0.708 sec  (  0.4%)
SOSCF solution              ....       0.341 sec  (  0.2%)
Grid generation             ....       5.861 sec  (  3.2%)

Maximum memory used throughout the entire SCF-calculation: 78.0 MB

-------------------------   --------------------
FINAL SINGLE POINT ENERGY      -339.394592291798
-------------------------   --------------------



           ************************************************************
           *        Program running with 2 parallel MPI-processes     *
           *              working on a common directory               *
           ************************************************************
------------------------------------------------------------------------------
                         ORCA SCF GRADIENT CALCULATION
------------------------------------------------------------------------------

 ... reading COSX grid (gridx3)
Gradient of the Kohn-Sham DFT energy:
Kohn-Sham wavefunction type      ... RKS
Hartree-Fock exchange scaling    ...    0.540
Number of operators              ...    1
Number of atoms                  ...   11
Basis set dimensions             ...  241
Integral neglect threshold       ... 2.5e-11
Integral primitive cutoff        ... 2.5e-12
SHARK Integral package           ... ON

Nuc. rep. gradient       (SHARK) ... done (  0.0 sec)
HCore & Overlap gradient (SHARK) ... done (  0.2 sec)
RI-J gradient            (SHARK) ... done (  1.2 sec)
COSX-gradient                    ... done ( 15.8 sec)
Exchange-correlation gradient    ... done

------------------
CARTESIAN GRADIENT
------------------

   1   C   :   -0.008291360   -0.003133992   -0.003567752
   2   C   :    0.001377564    0.001117749   -0.008187373
   3   N   :    0.006507005    0.004164184    0.000618907
   4   H   :   -0.000933155    0.000583458   -0.000476917
   5   C   :    0.001023216    0.000305694    0.007023935
   6   N   :    0.008156166    0.015569668   -0.007804417
   7   H   :   -0.000070752   -0.001445220    0.000552559
   8   O   :    0.004924333   -0.017271923    0.006529286
   9   C   :   -0.011610661   -0.000954326    0.005481999
  10   H   :   -0.000892003    0.001365457    0.000676973
  11   H   :   -0.000203473   -0.000347364   -0.000898562

Difference to translation invariance:
           :   -0.0000131208   -0.0000466153   -0.0000513617

Difference to rotation invariance:
           :    0.0002175061    0.0001392726   -0.0003583357

Norm of the cartesian gradient     ...    0.0343621989
RMS gradient                       ...    0.0059816910
MAX gradient                       ...    0.0172719225

-------
TIMINGS
-------

Total SCF gradient time            ...       27.554 sec

One electron gradient       ....       0.212 sec  (  0.8%)
RI-J Coulomb gradient       ....       1.201 sec  (  4.4%)
COSX gradient               ....      15.802 sec  ( 57.3%)
XC gradient                 ....       9.080 sec  ( 33.0%)

Maximum memory used throughout the entire SCFGRAD-calculation: 51.5 MB


           ************************************************************
           *        Program running with 2 parallel MPI-processes     *
           *              working on a common directory               *
           ************************************************************

-------------------------------------------------------------------------------
                               ORCA SCF HESSIAN
-------------------------------------------------------------------------------

Hessian of the Kohn-Sham DFT energy:
Kohn-Sham wavefunction type                      ... RKS
Hartree-Fock exchange scaling                    ...    0.540
Number of operators                              ...    1
Number of atoms                                  ...   11
Basis set dimensions                             ...  241
Integral neglect threshold                       ... 2.5e-11
Integral primitive cutoff                        ... 2.5e-12

Setting up DFT Hessian calculations              ... 

HESS GRID
---------

General Integration Accuracy     IntAcc      ... 4.959
Radial Grid Type                 RadialGrid  ... OptM3 with GC (2021)
Angular Grid (max. ang.)         AngularGrid ... 7 (Lebedev-770)
Angular grid pruning method      GridPruning ... 4 (adaptive)
Weight generation scheme         WeightScheme... Becke
Basis function cutoff            BFCut       ... 1.0000e-11
Integration weight cutoff        WCut        ... 1.0000e-14
Angular grids for H and He will be reduced by one unit
Partially contracted basis set               ... off
Rotationally invariant grid construction     ... off

Total number of grid points                  ...   194269
Total number of batches                      ...     3043
Average number of points per batch           ...       63
Average number of grid points per atom       ...    17661

Building densities                               ... done   (      0.0 sec)
Calculating rho(r) on the grid                   ... done   (      2.4 sec)
Building xc-kernel on the grid                   ... done   (      1.8 sec)
                                                     done   (      8.6 sec)

Nuclear repulsion Hessian  (SHARK)               ... done   (      0.0 sec)

----------------------------------------------
Forming right-hand sides of CP-SCF equations     ...
----------------------------------------------
One electron integral derivatives  (SHARK)       ... done   (      0.2 sec)
Transforming the overlap derivative matrices     ... done   (      1.3 sec)
Making the Q(x) pseudodensities                  ... done   (      0.1 sec)
Adding the E*S(x)*S(y) terms to the Hessian      ... done   (      0.0 sec)
Calculating energy weighted overlap derivatives  ... done   (      1.8 sec)
Two electron integral derivatives (SHARK-RI)     ... done   (     58.9 sec)
Exchange-correlation integral derivatives        ... done   (    271.7 sec)
tr(F(y)Q(x)) contribution to the Hessian         ... done   (      0.0 sec)
Response fock operator R(S(x)) (SHARK-RIJCOSX)   ... done   (     49.2 sec)
XC Response fock operator R(S(x))                ... done   (    102.4 sec)
tr(F(y)S(x)) contribution to the Hessian         ... done   (      0.0 sec)
Transforming and finalizing RHSs                 ... done   (      1.3 sec)

----------------------------------------------
Solving the CP-SCF equations (RIJCOSX)           ...
----------------------------------------------
     CP-SCF ITERATION   0:   2.0088e-01 (  24.2 sec   0/ 33 done)
     CP-SCF ITERATION   1:   1.4673e-01 (  23.9 sec   0/ 33 done)
     CP-SCF ITERATION   2:   2.7910e-02 (  23.7 sec   0/ 33 done)
     CP-SCF ITERATION   3:   1.6451e-02 (  23.9 sec   0/ 33 done)
     CP-SCF ITERATION   4:   8.6176e-03 (  23.9 sec   0/ 33 done)
     CP-SCF ITERATION   5:   4.6688e-03 (  23.9 sec   0/ 33 done)
     CP-SCF ITERATION   6:   1.9625e-03 (  23.8 sec   0/ 33 done)
     CP-SCF ITERATION   7:   9.0615e-04 (  23.7 sec  10/ 33 done)
     CP-SCF ITERATION   8:   4.2291e-04 (  18.3 sec  14/ 33 done)
     CP-SCF ITERATION   9:   1.7942e-04 (  15.5 sec  24/ 33 done)
     CP-SCF ITERATION  10:   6.9751e-05 (   8.6 sec  33/ 33 done)
                    *** THE CP-SCF HAS CONVERGED ***

                                                 ... done   (    235.2 sec)
Forming perturbed density Hessian contributions  ... done   (      0.0 sec)
2nd integral derivative contribs (SHARK-RI)      ... done   (    291.8 sec)
Exchange-correlation Hessian                     ... done   (     86.0 sec)
Dipole derivatives                               ... done   (      0.7 sec)

Total SCF Hessian time: 0 days 0 hours 18 min 31 sec 

Writing the Hessian file to the disk             ... done


Maximum memory used throughout the entire SCFHESS-calculation: 256.2 MB

-----------------------
VIBRATIONAL FREQUENCIES
-----------------------

Scaling factor for frequencies =  1.000000000  (already applied!)

   0:         0.00 cm**-1
   1:         0.00 cm**-1
   2:         0.00 cm**-1
   3:         0.00 cm**-1
   4:         0.00 cm**-1
   5:         0.00 cm**-1
   6:       173.22 cm**-1
   7:       326.51 cm**-1
   8:       433.17 cm**-1
   9:       509.70 cm**-1
  10:       557.04 cm**-1
  11:       673.04 cm**-1
  12:       696.13 cm**-1
  13:       769.14 cm**-1
  14:       781.56 cm**-1
  15:       897.48 cm**-1
  16:       972.18 cm**-1
  17:       997.12 cm**-1
  18:      1023.33 cm**-1
  19:      1026.71 cm**-1
  20:      1054.84 cm**-1
  21:      1138.80 cm**-1
  22:      1175.86 cm**-1
  23:      1239.62 cm**-1
  24:      1360.69 cm**-1
  25:      1408.76 cm**-1
  26:      1453.30 cm**-1
  27:      1579.83 cm**-1
  28:      1689.43 cm**-1
  29:      3175.07 cm**-1
  30:      3181.97 cm**-1
  31:      3215.94 cm**-1
  32:      3231.79 cm**-1


------------
NORMAL MODES
------------

These modes are the Cartesian displacements weighted by the diagonal matrix
M(i,i)=1/sqrt(m[i]) where m[i] is the mass of the displaced atom
Thus, these vectors are normalized but *not* orthogonal

                  0          1          2          3          4          5    
      0       0.000000   0.000000   0.000000   0.000000   0.000000   0.000000
      1       0.000000   0.000000   0.000000   0.000000   0.000000   0.000000
      2       0.000000   0.000000   0.000000   0.000000   0.000000   0.000000
      3       0.000000   0.000000   0.000000   0.000000   0.000000   0.000000
      4       0.000000   0.000000   0.000000   0.000000   0.000000   0.000000
      5       0.000000   0.000000   0.000000   0.000000   0.000000   0.000000
      6       0.000000   0.000000   0.000000   0.000000   0.000000   0.000000
      7       0.000000   0.000000   0.000000   0.000000   0.000000   0.000000
      8       0.000000   0.000000   0.000000   0.000000   0.000000   0.000000
      9       0.000000   0.000000   0.000000   0.000000   0.000000   0.000000
     10       0.000000   0.000000   0.000000   0.000000   0.000000   0.000000
     11       0.000000   0.000000   0.000000   0.000000   0.000000   0.000000
     12       0.000000   0.000000   0.000000   0.000000   0.000000   0.000000
     13       0.000000   0.000000   0.000000   0.000000   0.000000   0.000000
     14       0.000000   0.000000   0.000000   0.000000   0.000000   0.000000
     15       0.000000   0.000000   0.000000   0.000000   0.000000   0.000000
     16       0.000000   0.000000   0.000000   0.000000   0.000000   0.000000
     17       0.000000   0.000000   0.000000   0.000000   0.000000   0.000000
     18       0.000000   0.000000   0.000000   0.000000   0.000000   0.000000
     19       0.000000   0.000000   0.000000   0.000000   0.000000   0.000000
     20       0.000000   0.000000   0.000000   0.000000   0.000000   0.000000
     21       0.000000   0.000000   0.000000   0.000000   0.000000   0.000000
     22       0.000000   0.000000   0.000000   0.000000   0.000000   0.000000
     23       0.000000   0.000000   0.000000   0.000000   0.000000   0.000000
     24       0.000000   0.000000   0.000000   0.000000   0.000000   0.000000
     25       0.000000   0.000000   0.000000   0.000000   0.000000   0.000000
     26       0.000000   0.000000   0.000000   0.000000   0.000000   0.000000
     27       0.000000   0.000000   0.000000   0.000000   0.000000   0.000000
     28       0.000000   0.000000   0.000000   0.000000   0.000000   0.000000
     29       0.000000   0.000000   0.000000   0.000000   0.000000   0.000000
     30       0.000000   0.000000   0.000000   0.000000   0.000000   0.000000
     31       0.000000   0.000000   0.000000   0.000000   0.000000   0.000000
     32       0.000000   0.000000   0.000000   0.000000   0.000000   0.000000
                  6          7          8          9         10         11    
      0      -0.089209  -0.054474  -0.128116   0.030473   0.105691   0.079058
      1       0.175237   0.168956   0.069126   0.101430  -0.040384  -0.201495
      2      -0.046715  -0.012302  -0.127473   0.040317  -0.281836   0.100938
      3      -0.151342   0.095083  -0.000946   0.068585   0.260439  -0.128201
      4       0.157547  -0.201711   0.003521   0.130804   0.186277   0.151739
      5      -0.039556   0.019096  -0.121953   0.115795   0.100100  -0.014039
      6       0.092342  -0.026192  -0.121276   0.241326  -0.055833  -0.084888
      7      -0.195368   0.102832  -0.002909  -0.100290   0.128049   0.226274
      8      -0.100525  -0.021463   0.013520  -0.107358  -0.203909   0.040313
      9      -0.154801   0.166850  -0.135318   0.120968   0.138570  -0.123521
     10       0.094050  -0.560829   0.314299   0.112443   0.236324   0.447045
     11      -0.009303   0.040886  -0.035061   0.044142   0.262962  -0.127494
     12       0.017441   0.047263   0.070456  -0.087106   0.185335  -0.003136
     13      -0.177839  -0.004807  -0.021975  -0.319041  -0.017980  -0.200295
     14      -0.059867   0.001908  -0.070458   0.155742   0.122235  -0.005445
     15      -0.141845   0.099116   0.208127   0.175554  -0.353781   0.152949
     16      -0.034049  -0.134104  -0.035090   0.029597   0.005224   0.079230
     17       0.112947  -0.025648  -0.188362  -0.174389  -0.093653  -0.086470
     18       0.154412   0.080034  -0.050178  -0.116860   0.073586   0.080770
     19      -0.707828  -0.236915   0.426351  -0.673720  -0.134110  -0.191622
     20       0.073379   0.013658  -0.183284   0.045456  -0.090379   0.136271
     21       0.149290  -0.159766   0.063206  -0.216116  -0.120508  -0.082992
     22      -0.009656  -0.112745   0.075659   0.191129  -0.168303  -0.143072
     23       0.198240   0.060451   0.312851  -0.098256   0.124003   0.113075
     24       0.093779   0.032976  -0.074965  -0.197682   0.052075   0.071415
     25       0.144265   0.224616  -0.209976  -0.044465  -0.047505   0.073318
     26      -0.120443  -0.032440   0.129956   0.128444   0.234710  -0.165587
     27      -0.064112   0.055207  -0.194169  -0.071163   0.125353  -0.015456
     28       0.227813   0.360203   0.010553   0.059312   0.073150   0.309380
     29      -0.154398  -0.079271   0.045972   0.099855   0.204865  -0.249588
     30      -0.076085  -0.219616  -0.238833  -0.082535   0.075526   0.201672
     31       0.161876   0.432707   0.474193   0.014885  -0.314115  -0.433291
     32      -0.052265   0.002755  -0.100517   0.038736  -0.298491   0.089968
                 12         13         14         15         16         17    
      0       0.043381   0.121878  -0.018207  -0.033516  -0.072368   0.004029
      1       0.107338  -0.117273  -0.004583   0.027842   0.110186  -0.108956
      2       0.110536  -0.050856  -0.018108  -0.043827   0.120018   0.174814
      3       0.039352   0.034997  -0.050172  -0.143065  -0.029141  -0.009412
      4      -0.118698   0.112248   0.056523  -0.147860   0.028591   0.027325
      5       0.133679   0.059256  -0.018151  -0.032739  -0.037012   0.016308
      6       0.201824  -0.076529   0.000031   0.109379   0.042184   0.054893
      7       0.098079   0.286821   0.039982   0.104477   0.017327   0.051224
      8      -0.167093  -0.133931  -0.059096  -0.220278   0.027103  -0.070748
      9       0.176973   0.151686   0.136952  -0.368228   0.082396   0.001155
     10      -0.009469   0.117536  -0.656395   0.380137  -0.366101   0.030375
[...]
     23      -0.247248   0.110338  -0.220550   0.134427   0.003815   0.036811
     24      -0.040517   0.022011  -0.024791  -0.074284   0.216776   0.056146
     25      -0.020474   0.208945   0.136549  -0.134737   0.182632   0.143470
     26       0.068005  -0.029359  -0.040608   0.319700  -0.061752  -0.058391
     27       0.129996   0.009026   0.099127   0.029269   0.191462  -0.027379
     28      -0.150600   0.373890   0.056228   0.069551   0.082409   0.255065
     29       0.111836  -0.081520  -0.008841   0.265644  -0.028286  -0.096440
     30       0.071980  -0.246975   0.133497  -0.037748   0.244384   0.279311
     31      -0.151353   0.483013  -0.316120  -0.101260  -0.374774  -0.403739
     32       0.072343  -0.011889   0.075171  -0.275871  -0.136650   0.032682
                 12         13         14         15         16         17    
      0       0.105644  -0.003782   0.087126  -0.016404  -0.073972  -0.007640
      1      -0.019898  -0.022406  -0.057294   0.028481   0.113712  -0.103811
      2       0.119130  -0.029279  -0.056129  -0.074877   0.107983   0.195813
      3      -0.002002  -0.038738   0.100554  -0.134140  -0.030122  -0.014215
      4      -0.011694   0.078092   0.057898  -0.148223   0.018736   0.018493
      5       0.124719  -0.010794   0.035191  -0.023509  -0.042136   0.003739
      6       0.107541  -0.014623  -0.096950   0.097691   0.038847   0.067192
      7       0.246636   0.072522   0.032878   0.110213   0.017384   0.061110
      8      -0.147150  -0.074902   0.063130  -0.228200   0.022809  -0.086553
      9       0.117871   0.175345   0.094864  -0.373002   0.078970  -0.014799
     10       0.278542  -0.637286   0.309989   0.424136  -0.334264   0.077192
     11      -0.165448  -0.047352  -0.052644   0.089370  -0.060470  -0.000079
     12      -0.252324  -0.096732  -0.141802   0.019097   0.090811   0.194835
     13      -0.059055   0.103527  -0.049853  -0.063719  -0.045755   0.082388
     14       0.090993  -0.009739   0.052339  -0.021422  -0.026487  -0.076863
     15      -0.057497   0.095477  -0.092237   0.069505  -0.054284  -0.085788
     16      -0.010000  -0.047894  -0.502045  -0.041786  -0.075541  -0.089428
     17      -0.112480   0.014596   0.068813   0.239003  -0.078832  -0.020712
     18      -0.270305  -0.012297  -0.286474  -0.023018   0.039196   0.367404
     19       0.426550  -0.558381   0.066812   0.406291   0.432583  -0.249964
     20       0.135977   0.035074  -0.169121  -0.012065  -0.040339   0.138532
     21       0.095051   0.045370   0.267158  -0.022652   0.008511  -0.029784
     22      -0.146609   0.017906   0.212474   0.018404   0.021149   0.063971
     23       0.168914   0.045260  -0.151102  -0.013945  -0.001895   0.013093
     24      -0.008526  -0.032001  -0.163487   0.009693  -0.014981  -0.067596
     25      -0.065212  -0.064304   0.228360   0.064919  -0.010180  -0.037865
     26      -0.235075   0.055768   0.039729   0.108982   0.033058  -0.046812
     27      -0.012921  -0.042330   0.063049  -0.132354  -0.032634  -0.375587
     28       0.297577  -0.241555   0.382692  -0.321701   0.158243  -0.287233
     29      -0.348099   0.110303  -0.018906   0.229711  -0.022217   0.013441
     30      -0.165456   0.076249  -0.081489   0.015350   0.330671  -0.501614
     31      -0.106774  -0.320137   0.253351  -0.339182  -0.695803   0.324254
     32       0.115543  -0.049365  -0.042054  -0.106791   0.068679   0.226700
                 18         19         20         21         22         23    
      0      -0.080009  -0.008227  -0.111818   0.024656   0.014084  -0.014900
      1       0.077099   0.000380  -0.043157   0.022643  -0.007012  -0.005807
      2       0.015500  -0.118765   0.108121  -0.004960   0.020240  -0.023706
      3       0.136139   0.064456   0.139042  -0.006360  -0.018828   0.001625
      4      -0.069380   0.100190   0.101030  -0.015491   0.006836  -0.002564
      5       0.054476   0.098282  -0.007742  -0.020500   0.041282  -0.016422
      6      -0.047392  -0.046225  -0.061400  -0.012178   0.029498   0.016572
      7      -0.023351  -0.023040  -0.041512  -0.015343   0.017103  -0.009334
      8       0.010360   0.007195  -0.078795   0.027527   0.023947   0.006124
      9      -0.057017   0.066547   0.388999   0.145643  -0.356676   0.046522
     10       0.618396  -0.447496  -0.051437   0.084211  -0.121138   0.024420
     11       0.077447   0.317174  -0.294474  -0.286623   0.586309  -0.093791
     12      -0.002275   0.074380  -0.023289  -0.035113   0.013369   0.020430
     13       0.078318  -0.065023  -0.068202  -0.025342  -0.007906   0.006498
     14      -0.014933   0.059657  -0.061783   0.038851  -0.030069   0.027765
     15       0.033947   0.050639   0.035554  -0.025021  -0.001053   0.041984
     16      -0.011625  -0.008213   0.054523  -0.013982   0.012123   0.089859
     17       0.005964   0.108058   0.073391  -0.088464  -0.061365  -0.035396
     18       0.042839   0.138736  -0.306019   0.078725  -0.287853   0.180180
     19      -0.432563   0.495048   0.218967   0.095956  -0.061433   0.019237
     20      -0.029434   0.236274  -0.496349   0.257066  -0.546747   0.304718
     21       0.004921  -0.028676   0.018194   0.004455   0.034122   0.120471
     22       0.005119   0.037490  -0.052302  -0.007326  -0.037395  -0.151582
     23       0.014665   0.012234  -0.011001   0.032504   0.006187  -0.062548
     24      -0.041931  -0.082003   0.032000   0.027807  -0.035280  -0.183981
     25      -0.011168  -0.024554   0.072489   0.112343   0.056402   0.081238
     26      -0.090716  -0.212778   0.030645  -0.006587  -0.009224   0.111410
     27      -0.139951  -0.354437   0.023720  -0.055183  -0.091102  -0.820795
     28      -0.120760  -0.285778  -0.160229  -0.819703  -0.276631   0.280177
     29      -0.067104  -0.154389   0.105452   0.283624   0.089025   0.031782
     30       0.120756  -0.036199  -0.464518   0.146058   0.116381  -0.024710
     31      -0.552421  -0.053519  -0.098632   0.041426   0.070849   0.017421
     32      -0.015458  -0.126162   0.110014  -0.004274   0.028297  -0.023402
                 24         25         26         27         28         29    
      0      -0.008421   0.054908  -0.030227  -0.447999  -0.232753   0.000300
      1      -0.000763   0.025048  -0.014709  -0.233307  -0.120132   0.004450
      2       0.042615  -0.074804  -0.070976  -0.092544  -0.148629  -0.083832
      3      -0.016352  -0.073327  -0.114007   0.158972  -0.019062   0.007362
      4      -0.004204  -0.021148  -0.033284   0.025920   0.016339   0.001964
      5       0.059291   0.055280   0.052890  -0.305916   0.381192   0.007912
      6      -0.054541   0.026571   0.047291   0.284762   0.169323   0.000439
      7      -0.020813   0.006662   0.022132   0.148043   0.088579   0.000359
      8      -0.081516   0.083648   0.028357   0.126012   0.119536   0.000198
      9       0.162050   0.097999   0.276160  -0.149918   0.393215  -0.105951
     10       0.029758   0.004324   0.063765  -0.005797   0.101092  -0.029700
     11      -0.205436  -0.219362  -0.564138   0.116231  -0.157658  -0.079276
     12       0.018762   0.003016   0.157843  -0.054913  -0.063614  -0.003608
     13       0.012857   0.011720   0.037250   0.024432  -0.046584  -0.000220
     14       0.029964   0.021967   0.117365   0.278904  -0.395065   0.002649
     15       0.002891  -0.014952   0.010075  -0.048869  -0.011363   0.000475
     16      -0.014582  -0.023503   0.020537  -0.032755  -0.007295  -0.000349
     17       0.015315  -0.025705   0.012956   0.028167  -0.032630   0.001453
     18      -0.130243  -0.188575  -0.172240  -0.247281   0.331297   0.047435
     19      -0.023743  -0.067953  -0.122516  -0.123300   0.105427   0.004203
     20      -0.226814  -0.302227  -0.479249   0.003480   0.195618  -0.029911
     21      -0.017184  -0.026309   0.024893  -0.017540   0.005049   0.000294
     22       0.018719   0.033499  -0.026981   0.027645   0.003782   0.000228
     23      -0.007879  -0.012691   0.010495  -0.000105  -0.004407   0.000013
     24       0.062041   0.141366  -0.162206   0.130130   0.023148  -0.000018
     25      -0.028728  -0.015584   0.008330   0.004790   0.016921  -0.004660
     26      -0.008240   0.002001  -0.063690  -0.059088   0.068193  -0.016008
     27      -0.426854  -0.645665   0.462910  -0.356615   0.154157  -0.006056
     28       0.080214   0.035028  -0.071435  -0.014681   0.010322   0.057199
     29      -0.058426  -0.035101  -0.039685  -0.069618   0.091193   0.185251
     30       0.717875  -0.508561   0.011557   0.301954   0.328933  -0.000874
     31       0.356806  -0.269490  -0.005743   0.225936   0.183850  -0.053729
     32       0.062522  -0.099998  -0.081653  -0.062220  -0.143081   0.964605
                 30         31         32    
      0      -0.000075  -0.000735  -0.001889
      1      -0.000839  -0.000641  -0.001311
      2       0.017745   0.009379   0.008496
      3       0.000930   0.042101   0.054274
      4       0.000145   0.011441   0.015435
      5      -0.000565   0.026411   0.043031
      6      -0.000647  -0.000080  -0.000252
      7      -0.000025  -0.000254  -0.000125
      8       0.000383  -0.000299  -0.000091
      9      -0.005636  -0.488536  -0.627022
     10      -0.001960  -0.130559  -0.167430
     11      -0.002704  -0.332896  -0.433625
     12      -0.008400  -0.057265   0.045679
     13      -0.000205  -0.005589   0.003738
     14       0.008613   0.033060  -0.032966
     15       0.000283   0.000045  -0.000220
     16      -0.001195   0.000136  -0.000160
     17       0.000277  -0.000450   0.000073
     18       0.121663   0.662061  -0.519543
     19       0.010519   0.061551  -0.047262
     20      -0.078667  -0.393265   0.313425
     21       0.000637   0.000045  -0.000023
     22       0.000728  -0.000101   0.000054
     23       0.000067  -0.000049  -0.000084
     24      -0.000343   0.001111  -0.001720
     25      -0.024236   0.003711  -0.001882
     26      -0.080124   0.012575  -0.006503
     27      -0.027926   0.000772   0.001941
     28       0.285908  -0.041060   0.019959
     29       0.920781  -0.133396   0.064305
     30       0.000844   0.001680   0.003539
     31       0.010449   0.006998   0.007416
     32      -0.202273  -0.099483  -0.086203


-----------
IR SPECTRUM
-----------

 Mode   freq       eps      Int      T**2         TX        TY        TZ
       cm**-1   L/(mol*cm) km/mol    a.u.
----------------------------------------------------------------------------
  6:    230.23   0.001771    8.95  0.002400  ( 0.043194 -0.005315  0.022493)
  7:    321.27   0.000384    1.94  0.000373  (-0.016367  0.010183 -0.001333)
  8:    481.02   0.001011    5.11  0.000656  (-0.006683 -0.016322  0.018576)
  9:    554.42   0.000872    4.41  0.000491  ( 0.021955  0.002970  0.000057)
 10:    598.76   0.000948    4.79  0.000494  (-0.016211  0.001683 -0.015111)
 11:    676.76   0.000802    4.05  0.000370  ( 0.018873  0.000235 -0.003701)
 12:    709.61   0.004314   21.80  0.001897  (-0.027573  0.013221 -0.031016)
 13:    783.12   0.011018   55.68  0.004391  ( 0.004136 -0.066130  0.000465)
 14:    843.16   0.000246    1.24  0.000091  ( 0.004505  0.002996  0.007851)
 15:    898.40   0.001813    9.16  0.000630  (-0.016857  0.006970  0.017236)
 16:    972.73   0.000816    4.13  0.000262  ( 0.002594 -0.013548  0.008464)
 17:   1001.10   0.002901   14.66  0.000904  (-0.013931 -0.020835  0.016617)
 18:   1020.75   0.000384    1.94  0.000117  ( 0.003003 -0.007851 -0.006830)
 19:   1025.74   0.001267    6.40  0.000385  ( 0.004260 -0.010167 -0.016243)
 20:   1045.23   0.001872    9.46  0.000559  (-0.020518  0.006362  0.009878)
 21:   1149.07   0.000235    1.19  0.000064  (-0.000191 -0.001358 -0.007869)
 22:   1179.53   0.002018   10.20  0.000534  (-0.021301  0.002718 -0.008534)
 23:   1269.64   0.003762   19.01  0.000925  (-0.017139  0.024891  0.003361)
 24:   1367.17   0.000516    2.61  0.000118  ( 0.009851  0.003216 -0.003228)
 25:   1410.65   0.001634    8.26  0.000362  ( 0.002936 -0.008697 -0.016650)
 26:   1453.85   0.002862   14.46  0.000614  ( 0.000099 -0.000213 -0.024783)
 27:   1616.39   0.002399   12.12  0.000463  (-0.015629 -0.013187  0.006702)
 28:   1721.63   0.000505    2.55  0.000091  (-0.007384 -0.002346 -0.005608)
 29:   3186.78   0.002164   10.94  0.000212  ( 0.001427 -0.001220 -0.014436)
 30:   3189.47   0.001761    8.90  0.000172  ( 0.002401 -0.004933 -0.011926)
 31:   3225.97   0.000224    1.13  0.000022  (-0.000204  0.001554  0.004382)
 32:   3243.08   0.000184    0.93  0.000018  ( 0.003950  0.001208  0.000813)

* The epsilon (eps) is given for a Dirac delta lineshape.
** The dipole moment derivative (T) already includes vibrational overlap.

The first frequency considered to be a vibration is 6
The total number of vibrations considered is 27


--------------------------
THERMOCHEMISTRY AT 298.15K
--------------------------

Temperature         ... 298.15 K
Pressure            ... 1.00 atm
Total Mass          ... 96.09 AMU

Throughout the following assumptions are being made:
  (1) The electronic state is orbitally nondegenerate
  (2) There are no thermally accessible electronically excited states
  (3) Hindered rotations indicated by low frequency modes are not
      treated as such but are treated as vibrations and this may
      cause some error
  (4) All equations used are the standard statistical mechanics
      equations for an ideal gas
  (5) All vibrations are strictly harmonic

freq.     230.23  E(vib)   ...       0.32 
freq.     321.27  E(vib)   ...       0.25 
freq.     481.02  E(vib)   ...       0.15 
freq.     554.42  E(vib)   ...       0.12 
freq.     598.76  E(vib)   ...       0.10 
freq.     676.76  E(vib)   ...       0.08 
freq.     709.61  E(vib)   ...       0.07 
freq.     783.12  E(vib)   ...       0.05 
freq.     843.16  E(vib)   ...       0.04 
freq.     898.40  E(vib)   ...       0.03 
freq.     972.73  E(vib)   ...       0.03 
freq.    1001.10  E(vib)   ...       0.02 
freq.    1020.75  E(vib)   ...       0.02 
freq.    1025.74  E(vib)   ...       0.02 
freq.    1045.23  E(vib)   ...       0.02 
freq.    1149.07  E(vib)   ...       0.01 
freq.    1179.53  E(vib)   ...       0.01 
freq.    1269.64  E(vib)   ...       0.01 
freq.    1367.17  E(vib)   ...       0.01 
freq.    1410.65  E(vib)   ...       0.00 
freq.    1453.85  E(vib)   ...       0.00 
freq.    1616.39  E(vib)   ...       0.00 
freq.    1721.63  E(vib)   ...       0.00 
freq.    3186.78  E(vib)   ...       0.00 
freq.    3189.47  E(vib)   ...       0.00 
freq.    3225.97  E(vib)   ...       0.00 
freq.    3243.08  E(vib)   ...       0.00 

------------
INNER ENERGY
------------

The inner energy is: U= E(el) + E(ZPE) + E(vib) + E(rot) + E(trans)
    E(el)   - is the total energy from the electronic structure calculation
              = E(kin-el) + E(nuc-el) + E(el-el) + E(nuc-nuc)
    E(ZPE)  - the the zero temperature vibrational energy from the frequency calculation
    E(vib)  - the the finite temperature correction to E(ZPE) due to population
              of excited vibrational states
    E(rot)  - is the rotational thermal energy
    E(trans)- is the translational thermal energy

Summary of contributions to the inner energy U:
Electronic energy                ...   -339.39604683 Eh
Zero point energy                ...      0.08013580 Eh      50.29 kcal/mol
Thermal vibrational correction   ...      0.00218482 Eh       1.37 kcal/mol
Thermal rotational correction    ...      0.00141627 Eh       0.89 kcal/mol
Thermal translational correction ...      0.00141627 Eh       0.89 kcal/mol
-----------------------------------------------------------------------
Total thermal energy                   -339.31089367 Eh


Summary of corrections to the electronic energy:
(perhaps to be used in another calculation)
Total thermal correction                  0.00501736 Eh       3.15 kcal/mol
Non-thermal (ZPE) correction              0.08013580 Eh      50.29 kcal/mol
-----------------------------------------------------------------------
Total correction                          0.08515316 Eh      53.43 kcal/mol


--------
ENTHALPY
--------

The enthalpy is H = U + kB*T
                kB is Boltzmann's constant
Total free energy                 ...   -339.31089367 Eh 
Thermal Enthalpy correction       ...      0.00094421 Eh       0.59 kcal/mol
-----------------------------------------------------------------------
Total Enthalpy                    ...   -339.30994946 Eh


Note: Only C1 symmetry has been detected, increase convergence thresholds 
      if your molecule has a higher symmetry. Symmetry factor of 1.0 is   
      used for the rotational entropy correction. 
 

Note: Rotational entropy computed according to Herzberg 
Infrared and Raman Spectra, Chapter V,1, Van Nostrand Reinhold, 1945 
Point Group:  C1, Symmetry Number:   1  
Rotational constants in cm-1:     0.158837     0.132266     0.084050 

Vibrational entropy computed according to the QRRHO of S. Grimme
Chem.Eur.J. 2012 18 9955


-------
ENTROPY
-------

The entropy contributions are T*S = T*(S(el)+S(vib)+S(rot)+S(trans))
     S(el)   - electronic entropy
     S(vib)  - vibrational entropy
     S(rot)  - rotational entropy
     S(trans)- translational entropy
The entropies will be listed as multiplied by the temperature to get
units of energy

Electronic entropy                ...      0.00000000 Eh      0.00 kcal/mol
Vibrational entropy               ...      0.00317897 Eh      1.99 kcal/mol
Rotational entropy                ...      0.01250347 Eh      7.85 kcal/mol
Translational entropy             ...      0.01881474 Eh     11.81 kcal/mol
-----------------------------------------------------------------------
Final entropy term                ...      0.03449719 Eh     21.65 kcal/mol

In case the symmetry of your molecule has not been determined correctly
or in case you have a reason to use a different symmetry number we print 
out the resulting rotational entropy values for sn=1,12 :
 --------------------------------------------------------
|  sn= 1 | S(rot)=       0.01250347 Eh      7.85 kcal/mol|
|  sn= 2 | S(rot)=       0.01184902 Eh      7.44 kcal/mol|
|  sn= 3 | S(rot)=       0.01146618 Eh      7.20 kcal/mol|
|  sn= 4 | S(rot)=       0.01119456 Eh      7.02 kcal/mol|
|  sn= 5 | S(rot)=       0.01098387 Eh      6.89 kcal/mol|
|  sn= 6 | S(rot)=       0.01081173 Eh      6.78 kcal/mol|
|  sn= 7 | S(rot)=       0.01066618 Eh      6.69 kcal/mol|
|  sn= 8 | S(rot)=       0.01054010 Eh      6.61 kcal/mol|
|  sn= 9 | S(rot)=       0.01042889 Eh      6.54 kcal/mol|
|  sn=10 | S(rot)=       0.01032942 Eh      6.48 kcal/mol|
|  sn=11 | S(rot)=       0.01023943 Eh      6.43 kcal/mol|
|  sn=12 | S(rot)=       0.01015727 Eh      6.37 kcal/mol|
 --------------------------------------------------------


-------------------
GIBBS FREE ENERGY
-------------------

The Gibbs free energy is G = H - T*S

Total enthalpy                    ...   -339.30994946 Eh 
Total entropy correction          ...     -0.03449719 Eh    -21.65 kcal/mol
-----------------------------------------------------------------------
Final Gibbs free energy         ...   -339.34444665 Eh

For completeness - the Gibbs free energy minus the electronic energy
G-E(el)                           ...      0.05160018 Eh     32.38 kcal/mol


Timings for individual modules:

Sum of individual times         ...     4755.897 sec (=  79.265 min)
GTO integral calculation        ...       12.324 sec (=   0.205 min)   0.3 %
SCF iterations                  ...     1033.154 sec (=  17.219 min)  21.7 %
SCF Gradient evaluation         ...      173.661 sec (=   2.894 min)   3.7 %
Geometry relaxation             ...        1.842 sec (=   0.031 min)   0.0 %
Analytical frequency calculation...     3534.916 sec (=  58.915 min)  74.3 %
                             ****ORCA TERMINATED NORMALLY****
TOTAL RUN TIME: 0 days 1 hours 19 minutes 39 seconds 175 msec
